<?xml version="1.0" encoding="UTF-8"?>

<!-- generated on 2025-03-09 12:10:56 by Eclipse SUMO sumo Version v1_21_0+1920-92e75aa0ef4
<sumoConfiguration xmlns:xsi="http://www.w3.org/2001/XMLSchema-instance" xsi:noNamespaceSchemaLocation="http://sumo.dlr.de/xsd/sumoConfiguration.xsd">

    <input>
        <net-file value="/home/azura/Desktop/sumo/sumo/tools/2025-03-09-12-10-30/osm.net.xml.gz"/>
        <route-files value="/home/azura/Desktop/sumo/sumo/tools/2025-03-09-12-10-30/trips.trips.xml"/>
        <additional-files value="/home/azura/Desktop/sumo/sumo/tools/2025-03-09-12-10-30/osm_stops.add.xml"/>
    </input>

    <output>
        <vehroute-output value="/home/azura/Desktop/sumo/sumo/tools/2025-03-09-12-10-30/vehroutes.xml"/>
        <stop-output value="/home/azura/Desktop/sumo/sumo/tools/2025-03-09-12-10-30/stopinfos.xml"/>
    </output>

    <time>
        <begin value="0.0"/>
    </time>

    <processing>
        <ignore-route-errors value="true"/>
    </processing>

    <routing>
        <device.rerouting.adaptation-interval value="0"/>
    </routing>

    <report>
        <aggregate-warnings value="5"/>
        <error-log value="/home/azura/Desktop/sumo/sumo/tools/2025-03-09-12-10-30/trips.trips.xml.errorlog"/>
        <no-step-log value="true"/>
    </report>

</sumoConfiguration>
-->

<routes xmlns:xsi="http://www.w3.org/2001/XMLSchema-instance" xsi:noNamespaceSchemaLocation="http://sumo.dlr.de/xsd/routes_file.xsd">
    <vehicle id="5_bus_370:1" type="pt_bus" depart="33.00" departLane="0" arrival="144.00">
        <route edges="288585010#0 47016365#1 301241483#4 728838409"/>
        <stop busStop="6828410667" duration="30.00"/>
    </vehicle>

    <vehicle id="4_bus_370:0" type="pt_bus" depart="19.00" departLane="0" arrival="169.00">
        <route edges="728838409 301241681#1 301241681#3 301241681#4 246052428 301167584#0 100405009#1 100405009#2 100405009#3 100405009#4 305093247#0 305093247#2 301610520#1 301733776"/>
        <stop busStop="6828410667" duration="30.00"/>
    </vehicle>

    <vehicle id="2_bus_N232:0" type="pt_bus" depart="15.00" departLane="0" arrival="174.00">
        <route edges="288585010#0 47016365#1 301241483#4 728838409 301241681#1 301241681#3 301241681#4 246052428 301167584#0 112128419#1 112128419#2 415280722 195401013#2"/>
        <stop busStop="6828410667" duration="30.00"/>
    </vehicle>

    <vehicle id="33_tram_12:1" type="pt_tram" depart="201.00" departLane="0" arrival="232.00">
        <route edges="104669629#2"/>
        <stop busStop="315735263" duration="30.00"/>
    </vehicle>

    <vehicle id="19_bus_100:0" type="pt_bus" depart="133.00" departLane="0" arrival="242.00">
        <route edges="112128419#2 415280722 195401013#2"/>
        <stop busStop="270727260" duration="30.00"/>
        <stop busStop="4163212867" duration="30.00"/>
    </vehicle>

    <vehicle id="11_bus_065:1" type="pt_bus" depart="93.00" departLane="0" arrival="296.00">
        <route edges="47016365#1 301241483#4 728838409"/>
        <stop busStop="6828410667" duration="30.00"/>
    </vehicle>

    <vehicle id="20_bus_100:1" type="pt_bus" depart="164.00" departLane="0" arrival="304.00">
        <route edges="24913524#0 195401006 1113401735#1"/>
        <stop busStop="768074068" duration="30.00"/>
    </vehicle>

    <vehicle id="36_light_rail_S5:0" type="pt_light_rail" depart="222.00" departLane="0" arrival="317.00">
        <route edges="25946659#0 25946659#1 32590498#1 32590501#1 32590648 32590649#0 32590649#1 32590649#2 32590640#1 32590640#2"/>
        <stop busStop="1745157971" duration="30.00"/>
    </vehicle>

    <vehicle id="37_light_rail_S5:1" type="pt_light_rail" depart="227.00" departLane="0" arrival="321.00">
        <route edges="32590894 4471817#1 4471817#2 4471817#3 32590638#1 32590645 32590647#0 32590647#1 32590494#1 32590496#1 72984377#1"/>
        <stop busStop="27411240" duration="30.00"/>
    </vehicle>

    <vehicle id="16_bus_N13:0" type="pt_bus" depart="126.00" departLane="0" arrival="332.00">
        <route edges="728838409 301241681#1 301241681#3 301241681#4 246052428 301167584#0 112128419#1 112128419#2 415280722 195401013#2"/>
        <stop busStop="6828410667" duration="30.00"/>
    </vehicle>

    <vehicle id="10_bus_065:0" type="pt_bus" depart="64.00" departLane="0" arrival="335.00">
        <route edges="728838409 301241681#1 301241681#3 301241681#4 246052428 301167584#0 100405009#1 100405009#2 100405009#3 100405009#4 305093247#0 305093247#2 301610520#1 301733776 1133761676#1"/>
        <stop busStop="6828410667" duration="30.00"/>
    </vehicle>

    <vehicle id="32_tram_12:0" type="pt_tram" depart="189.00" departLane="0" arrival="365.00">
        <route edges="149398400#3 1049894527#1 1049894527#3 1049894527#4 1049894527#5 1049894527#6 1049894528#0 1049894528#1 1049894528#4 154284647#2 154284647#3 154284647#4 154284647#5"/>
        <stop busStop="2135441884" duration="30.00"/>
        <stop busStop="3741491681" duration="30.00"/>
    </vehicle>

    <vehicle id="38_light_rail_S7:0" type="pt_light_rail" depart="237.00" departLane="0" arrival="380.00">
        <route edges="25946659#0 25946659#1 32590498#1 32590501#1 32590648 32590649#0 32590649#1 32590649#2 32590640#1 32590640#2"/>
        <stop busStop="1745157971" duration="30.00"/>
    </vehicle>

    <vehicle id="39_light_rail_S7:1" type="pt_light_rail" depart="242.00" departLane="0" arrival="387.00">
        <route edges="32590894 4471817#1 4471817#2 4471817#3 32590638#1 32590645 32590647#0 32590647#1 32590494#1 32590496#1 72984377#1"/>
        <stop busStop="27411240" duration="30.00"/>
    </vehicle>

    <vehicle id="15_bus_002:1" type="pt_bus" depart="125.00" departLane="0" arrival="441.00">
        <route edges="288585010#0 47016365#1 301241483#4 728838409 301241681#1 301241681#3 301241681#4 246052428 301167584#0 112128419#1 112128419#2 415280722 195401013#2"/>
        <stop busStop="6828410667" duration="30.00"/>
    </vehicle>

    <vehicle id="53_light_rail_S3:0" type="pt_light_rail" depart="381.00" departLane="0" arrival="476.00">
        <route edges="25946659#0 25946659#1 32590498#1 32590501#1 32590648 32590649#0 32590649#1 32590649#2 32590640#1 32590640#2"/>
        <stop busStop="1745157971" duration="30.00"/>
    </vehicle>

    <vehicle id="54_light_rail_S3:1" type="pt_light_rail" depart="383.00" departLane="0" arrival="477.00">
        <route edges="32590894 4471817#1 4471817#2 4471817#3 32590638#1 32590645 32590647#0 32590647#1 32590494#1 32590496#1 72984377#1"/>
        <stop busStop="27411240" duration="30.00"/>
    </vehicle>

    <vehicle id="3_bus_N232:1" type="pt_bus" depart="32.00" departLane="0" arrival="484.00">
        <route edges="24913524#0 195401006 1113401735#1 139877314#1 783042668 310357283#2 100405009#1 100405009#2 100405009#3 100405009#4 305093247#0 305093247#2 301610520#1 301733776 47016365#1 301241483#4 728838409 301241681#1 301241681#3 301241681#4 246052428 301167584#0 100405009#1 100405009#2 100405009#3 100405009#4 305093247#0 305093247#2 301610520#1 301733776"/>
        <stop busStop="6828410667" duration="30.00"/>
    </vehicle>

    <vehicle id="24_bus_200:0" type="pt_bus" depart="157.00" departLane="1" arrival="502.00">
        <route edges="671026861#0 1133993556#0 4790838#1 304162878#1 187091991 890801131#1 232070355#0 300401898 1101404262#1 24914141#1 24914141#2 24914141#4 24914141#5 24914141#8 318282850#2 112128419#1 112128419#2 415280722 195401013#2"/>
        <stop busStop="271327606" duration="30.00"/>
        <stop busStop="270720402" duration="30.00"/>
        <stop busStop="4163212867" duration="30.00"/>
    </vehicle>

    <vehicle id="55_light_rail_S9:0" type="pt_light_rail" depart="396.00" departLane="0" arrival="539.00">
        <route edges="25946659#0 25946659#1 32590498#1 32590501#1 32590648 32590649#0 32590649#1 32590649#2 32590640#1 32590640#2"/>
        <stop busStop="1745157971" duration="30.00"/>
    </vehicle>

    <vehicle id="56_light_rail_S9:1" type="pt_light_rail" depart="398.00" departLane="0" arrival="543.00">
        <route edges="32590894 4471817#1 4471817#2 4471817#3 32590638#1 32590645 32590647#0 32590647#1 32590494#1 32590496#1 72984377#1"/>
        <stop busStop="27411240" duration="30.00"/>
    </vehicle>

    <vehicle id="34_tram_M8:0" type="pt_tram" depart="204.00" departLane="0" arrival="553.00">
        <route edges="1044587219#0 1044587219#1 1044587219#2 1328606985 154305219 154449601#1 154449601#2 154449601#3 154449601#4 154449601#5 94351499 153424809#1 1052302087#1 1052302087#2 1052302087#3 1052302087#4 1052302087#5 1052302087#6 1052302087#7 1052302087#8 1052302087#9 1053166649#1 153424812#1 1053166650#0 1053166650#1 1053166650#3 153427725#1 153427725#2 153427725#3 153427725#4 1049894532#1 1049894532#3 1049894532#4 1049894532#5 1049894532#6"/>
        <stop busStop="30731498" duration="30.00"/>
        <stop busStop="1631354284" duration="30.00"/>
        <stop busStop="1661140876" duration="30.00"/>
        <stop busStop="1662140222" duration="30.00"/>
    </vehicle>

    <vehicle id="17_bus_N13:1" type="pt_bus" depart="142.00" departLane="0" arrival="562.00">
        <route edges="24913524#0 195401006 1113401735#1 139877314#1 783042668 310357283#2 100405009#1 100405009#2 100405009#3 100405009#4 305093247#0 305093247#2 301610520#1 301733776 47016365#1 301241483#4 728838409"/>
        <stop busStop="6828410667" duration="30.00"/>
    </vehicle>

    <vehicle id="61_subway_U2:0" type="pt_subway" depart="418.00" departLane="0" arrival="565.00">
        <route edges="388432539 200422335#0 200422335#1"/>
        <stop busStop="2094266784" duration="30.00"/>
        <stop busStop="2094266782" duration="30.00"/>
    </vehicle>

    <vehicle id="64_subway_U8:1" type="pt_subway" depart="437.00" departLane="0" arrival="567.00">
        <route edges="381201610"/>
        <stop busStop="5227235608" duration="30.00"/>
        <stop busStop="4655287360" duration="30.00"/>
    </vehicle>

    <vehicle id="63_subway_U8:0" type="pt_subway" depart="437.00" departLane="0" arrival="570.00">
        <route edges="438860779"/>
        <stop busStop="4655287361" duration="30.00"/>
        <stop busStop="5227235607" duration="30.00"/>
    </vehicle>

    <vehicle id="21_tram_M2:0" type="pt_tram" depart="137.00" departLane="0" arrival="575.00">
        <route edges="173149682#2 173149682#3 173149682#4 173149682#5 173149682#6 1052302090#1 1052302090#2 1052302090#3 1052302090#4 1052302090#8 1052302090#9 1052302090#11 1052302088 1053166661#0 1053166661#1 1053166661#2 1053166661#3 1053166661#4 1053166661#6 1053166661#7 331114772#1 331114772#2 1053166659#1 1053166659#6 1053166659#7 148452597#0 148452597#1 148452597#2 148452597#4 148452597#5"/>
        <stop busStop="1840238871" duration="30.00"/>
        <stop busStop="1840254052" duration="30.00"/>
        <stop busStop="1840260314" duration="30.00"/>
        <stop busStop="1840309842" duration="30.00"/>
        <stop busStop="1840333892" duration="30.00"/>
    </vehicle>

    <vehicle id="7_bus_170:1" type="pt_bus" depart="52.00" departLane="0" arrival="577.00">
        <route edges="288585010#0 47016365#1 301241483#4 728838409 301241681#1 301241681#3 301241681#4 246052428 301167584#0 1105526112#1 112128418#2 112128418#4 457031289 1020548406 4484427#0 4484427#1 1344278031#1 1096709571#1 1138687769 24968394#0 24968394#1 24968394#2 24968394#3 24968394#4 24968394#5 24968394#6 24968394#7 24968394#9 1138687770#3 1138687770#4 1138687770#5 1138687770#6 1138687770#8 1138687770#9 1138687770#10 1096709564#1 1096709564#2 1096709564#3 1096709564#4 1096709564#5 1133992721#1 940056668#0 940056668#1 940056668#2 940056668#4 940056668#5 940056668#7 940056668#8 1133992717#3"/>
        <stop busStop="6828410667" duration="30.00"/>
    </vehicle>

    <vehicle id="14_bus_002:0" type="pt_bus" depart="120.00" departLane="0" arrival="602.00">
        <route edges="24913524#0 195401006 1113401735#1 139877314#1 783042668 310357283#2 100405009#1 100405009#2 100405009#3 100405009#4 305093247#0 305093247#2 301610520#1 301733776 47016365#1 301241483#4 728838409 301241681#1 301241681#3 301241681#4 246052428 301167584#0 100405009#1 100405009#2 100405009#3 100405009#4 305093247#0 305093247#2 301610520#1 301733776"/>
        <stop busStop="6828410667" duration="30.00"/>
    </vehicle>

    <vehicle id="62_subway_U2:1" type="pt_subway" depart="422.00" departLane="0" arrival="603.00">
        <route edges="272795474 272795470#1 388432540"/>
        <stop busStop="2094266780" duration="30.00"/>
        <stop busStop="4961125734" duration="30.00"/>
        <stop busStop="196758117" duration="30.00"/>
    </vehicle>

    <vehicle id="6_bus_170:0" type="pt_bus" depart="47.00" departLane="0" arrival="677.00">
        <route edges="1133992718#1 940016786#1 940016786#2 940016786#3 940016786#4 940016786#5 940016786#7 940016786#8 24243530#2 24243530#3 24243530#4 24243530#5 24243530#6 24243530#7 24243530#9 24243530#10 24243530#11 24243530#13 24243530#15 598692947#0 598692947#1 598692947#2 1364759420#0 26652030#1 1104460750 1104460751#1 1101404246#1 177372522 295445243 296122995#0 296122995#1 187103792#1 307098733#1 187103791 311690284 187111590 47016365#1 301241483#4 728838409 301241681#1 301241681#3 301241681#4 246052428 301167584#0 100405009#1 100405009#2 100405009#3 100405009#4 305093247#0 305093247#2 301610520#1 301733776"/>
        <stop busStop="6828410667" duration="30.00"/>
    </vehicle>

    <vehicle id="23_tram_M2:2" type="pt_tram" depart="147.00" departLane="0" arrival="706.00">
        <route edges="148457212 148449390#2 4791000#0 4791000#1 4791000#6 4791000#7 1053166660#1 1053166660#2 86208412#1 86208412#3 86208412#4 86208412#5 86208412#6 86208412#7 86208412#8 86208412#9 94131369#0 94131369#2 94131369#3 94131369#7 94131369#8 94131369#9 94131369#10 94131369#11 1052302089#1 173190323#0 173190323#1 173190323#2 173190323#3"/>
        <stop busStop="30732068" duration="30.00"/>
        <stop busStop="30732071" duration="30.00"/>
        <stop busStop="30733475" duration="30.00"/>
        <stop busStop="30733478" duration="30.00"/>
    </vehicle>

    <vehicle id="1_bus_1385:1" type="pt_bus" depart="15.00" departLane="0" arrival="713.00">
        <route edges="24913524#0 195401006 1113401735#1 139877314#1 783042668 310357283#2 100405009#1 100405009#2 100405009#3 100405009#4 305093247#0 305093247#2 301610520#1 301733776 47016365#1 301241483#4 728838409 301241681#1 301241681#3 301241681#4 246052428 301167584#0 1105526112#1 112128418#2 112128418#4 457031289 1020548406 4484427#0 4484427#1 1344278031#1 1096709571#1 1138687769 24968394#0 24968394#1 24968394#2 24968394#3 24968394#4 24968394#5 24968394#6 24968394#7 24968394#9 1138687770#3 1138687770#4 1138687770#5 1138687770#6 1138687770#8 1138687770#9 1138687770#10 1096709564#1 1096709564#2 1096709564#3 1096709564#4 1096709564#5 1133992721#1 940056668#0 940056668#1 940056668#2 940056668#4 940056668#5 940056668#7 940056668#8 1133992717#3"/>
        <stop busStop="6828410667" duration="30.00"/>
    </vehicle>

    <vehicle id="0_bus_1385:0" type="pt_bus" depart="3.00" departLane="0" arrival="722.00">
        <route edges="1133992718#1 940016786#1 940016786#2 940016786#3 940016786#4 940016786#5 940016786#7 940016786#8 24243530#2 24243530#3 24243530#4 24243530#5 24243530#6 24243530#7 24243530#9 24243530#10 24243530#11 24243530#13 24243530#15 598692947#0 598692947#1 598692947#2 1364759420#0 26652030#1 1104460750 1104460751#1 1101404246#1 177372522 295445243 296122995#0 296122995#1 187103792#1 307098733#1 187103791 311690284 187111590 47016365#1 301241483#4 728838409 301241681#1 301241681#3 301241681#4 246052428 301167584#0 112128419#1 112128419#2 415280722 195401013#2"/>
        <stop busStop="6828410667" duration="30.00"/>
    </vehicle>

    <vehicle id="22_tram_M2:1" type="pt_tram" depart="209.00" departLane="0" arrival="748.00">
        <route edges="173149682#2 173149682#3 173149682#4 173149682#5 173149682#6 1052302090#1 1052302090#2 1052302090#3 1052302090#4 1052302090#8 1052302090#9 1052302090#11 1052302088 1053166661#0 1053166661#1 1053166661#2 1053166661#3 1053166661#4 1053166661#6 1053166661#7 331114772#1 331114772#2 1053166659#1 1053166659#6 1053166659#7 148452597#0 148452597#1 148452597#2 148452597#4 148452597#5"/>
        <stop busStop="1840238871" duration="30.00"/>
        <stop busStop="1840254052" duration="30.00"/>
        <stop busStop="1840260314" duration="30.00"/>
        <stop busStop="1840309842" duration="30.00"/>
        <stop busStop="1840333892" duration="30.00"/>
    </vehicle>

    <vehicle id="8_bus_N1385:0" type="pt_bus" depart="55.00" departLane="0" arrival="778.00">
        <route edges="1133992718#1 940016786#1 940016786#2 940016786#3 940016786#4 940016786#5 940016786#7 940016786#8 24243530#2 24243530#3 24243530#4 24243530#5 24243530#6 24243530#7 24243530#9 24243530#10 24243530#11 24243530#13 24243530#15 598692947#0 598692947#1 598692947#2 1364759420#0 26652030#1 1104460750 1104460751#1 1101404246#1 177372522 295445243 296122995#0 296122995#1 187103792#1 307098733#1 187103791 311690284 187111590 47016365#1 301241483#4 728838409 301241681#1 301241681#3 301241681#4 246052428 301167584#0 112128419#1 112128419#2 415280722 195401013#2"/>
        <stop busStop="6828410667" duration="30.00"/>
    </vehicle>

    <vehicle id="13_bus_125:1" type="pt_bus" depart="102.00" departLane="0" arrival="816.00">
        <route edges="1133992718#1 940016786#1 940016786#2 940016786#3 940016786#4 940016786#5 940016786#7 940016786#8 24243530#2 24243530#3 24243530#4 24243530#5 24243530#6 24243530#7 24243530#9 24243530#10 24243530#11 24243530#13 24243530#15 598692947#0 598692947#1 598692947#2 1364759420#0 26652030#1 1104460750 1104460751#1 1101404246#1 177372522 295445243 296122995#0 296122995#1 187103792#1 307098733#1 187103791 311690284 187111590 47016365#1 301241483#4 728838409 301241681#1 301241681#3 301241681#4 246052428 301167584#0 112128419#1 112128419#2 415280722 195401013#2"/>
        <stop busStop="6828410667" duration="30.00"/>
    </vehicle>

    <vehicle id="72_bus_N44:0" type="pt_bus" depart="530.00" departLane="0" arrival="819.00">
        <route edges="728838409 301241681#1 301241681#3 301241681#4 246052428 301167584#0 112128419#1 112128419#2 415280722 195401013#2"/>
        <stop busStop="6828410667" duration="30.00"/>
    </vehicle>

    <vehicle id="25_bus_200:1" type="pt_bus" depart="276.00" departLane="0" arrival="865.00">
        <route edges="24913524#0 195401006 1113401735#1 139877314#1 783042668 310357283#2 1105526112#1 112128418#2 112128418#4 457031289 1020548406 1101404246#1 177372522 295445243 296122995#0 296122995#1 4790839#1 311357732#1 311357732#2 189024466 1133993557 1133993573#1 -671026861#0"/>
        <stop busStop="768074068" duration="30.00"/>
        <stop busStop="3254638244" duration="30.00"/>
        <stop busStop="3918673867" duration="30.00"/>
    </vehicle>

    <vehicle id="42_tram_M1:2" type="pt_tram" depart="303.00" departLane="0" arrival="870.00">
        <route edges="149398400#3 1049894527#1 1049894527#3 1049894527#4 1049894527#5 1049894527#6 154165306#0 154165306#1 26757071#0 26757071#1 26757071#4 26757071#5 26757071#6 26757071#7 1049894529#1 1049894529#2 1049894529#3 1049894529#4 1049894529#5 1049894529#6 1049894529#7 1049894529#11 1053166655#3 153537614#3 153537614#4 153537614#7 153537614#8 153537614#10 153537614#11 153537614#12 153537614#13 153522303#0 153522303#1 153522303#3 46140393 1328606975#0 1328606975#1 101699679#0 101699679#1 101699679#3"/>
        <stop busStop="2135441884" duration="30.00"/>
        <stop busStop="2135441881" duration="30.00"/>
        <stop busStop="1668497956" duration="30.00"/>
    </vehicle>

    <vehicle id="75_bus_N70:1" type="pt_bus" depart="535.00" departLane="0" arrival="874.00">
        <route edges="288585010#0 47016365#1 301241483#4 728838409 301241681#1 301241681#3 301241681#4 246052428 301167584#0 112128419#1 112128419#2 415280722 195401013#2"/>
        <stop busStop="6828410667" duration="30.00"/>
    </vehicle>

    <vehicle id="65_tram_M2:3" type="pt_tram" depart="441.00" departLane="0" arrival="886.00">
        <route edges="148457212 148449390#2 4791000#0 4791000#1 4791000#6 4791000#7 1053166660#1 1053166660#2 86208412#1 86208412#3 86208412#4 86208412#5 86208412#6 86208412#7 86208412#8 86208412#9 94131369#0 94131369#2 94131369#3 94131369#7 94131369#8 94131369#9 94131369#10 94131369#11 1052302089#1 173190323#0 173190323#1 173190323#2 173190323#3"/>
        <stop busStop="30732068" duration="30.00"/>
        <stop busStop="30732071" duration="30.00"/>
        <stop busStop="30733475" duration="30.00"/>
        <stop busStop="30733478" duration="30.00"/>
    </vehicle>

    <vehicle id="73_bus_N44:1" type="pt_bus" depart="517.00" departLane="0" arrival="901.00">
        <route edges="24913524#0 195401006 1113401735#1 139877314#1 783042668 310357283#2 100405009#1 100405009#2 100405009#3 100405009#4 305093247#0 305093247#2 301610520#1 301733776 47016365#1 301241483#4 728838409"/>
        <stop busStop="6828410667" duration="30.00"/>
    </vehicle>

    <vehicle id="77_bus_070:1" type="pt_bus" depart="561.00" departLane="0" arrival="910.00">
        <route edges="288585010#0 47016365#1 301241483#4 728838409 301241681#1 301241681#3 301241681#4 246052428 301167584#0 112128419#1 112128419#2 415280722 195401013#2"/>
        <stop busStop="6828410667" duration="30.00"/>
    </vehicle>

    <vehicle id="78_bus_270:0" type="pt_bus" depart="567.00" departLane="0" arrival="912.00">
        <route edges="288585010#0 47016365#1 301241483#4 728838409 301241681#1 301241681#3 301241681#4 246052428 301167584#0 112128419#1 112128419#2 415280722 195401013#2"/>
        <stop busStop="6828410667" duration="30.00"/>
    </vehicle>

    <vehicle id="49_bus_142:1" type="pt_bus" depart="353.00" departLane="0" arrival="936.00">
        <route edges="320894149#0 320894149#1 320894149#2 740848375 1101404966#1 312654701#0 312654701#1 312654701#5 312654705#2 312654706#1 312654706#2 312654706#3 1105526087 309300321#0 309300321#1 1101404246#1 177372522 295445243 296122995#0 296122995#1 4790839#1 311357732#1 311357732#2 189024466 1133993557 1133993573#1 111251391#1 1134090050"/>
        <stop busStop="3918673893" duration="30.00"/>
        <stop busStop="3918673891" duration="30.00"/>
        <stop busStop="3254638244" duration="30.00"/>
        <stop busStop="3918673867" duration="30.00"/>
    </vehicle>

    <vehicle id="12_bus_125:0" type="pt_bus" depart="98.00" departLane="0" arrival="951.00">
        <route edges="24913524#0 195401006 1113401735#1 139877314#1 783042668 310357283#2 100405009#1 100405009#2 100405009#3 100405009#4 305093247#0 305093247#2 301610520#1 301733776 47016365#1 301241483#4 728838409 301241681#1 301241681#3 301241681#4 246052428 301167584#0 1105526112#1 112128418#2 112128418#4 457031289 1020548406 4484427#0 4484427#1 1344278031#1 1096709571#1 1138687769 24968394#0 24968394#1 24968394#2 24968394#3 24968394#4 24968394#5 24968394#6 24968394#7 24968394#9 1138687770#3 1138687770#4 1138687770#5 1138687770#6 1138687770#8 1138687770#9 1138687770#10 1096709564#1 1096709564#2 1096709564#3 1096709564#4 1096709564#5 1133992721#1 940056668#0 940056668#1 940056668#2 940056668#4 940056668#5 940056668#7 940056668#8 1133992717#3"/>
        <stop busStop="6828410667" duration="30.00"/>
    </vehicle>

    <vehicle id="28_tram_M4:2" type="pt_tram" depart="165.00" departLane="0" arrival="955.00">
        <route edges="22962554#0 1245947676#1 1245947676#2 301733774#1 301733774#2 1245947668#0 1245947668#1 22962555#2 22962555#3 22962555#4 150178429 150178430#0 150178430#1 150178430#3 150178892#1 150178892#2 150178892#3 150178892#4 150178892#5 150178892#6 150178892#7 150178892#8 94351504#1 94351504#2 94351504#4 94351504#5 94351501#1"/>
        <stop busStop="30731497" duration="30.00"/>
        <stop busStop="244486144" duration="30.00"/>
        <stop busStop="2201770565" duration="30.00"/>
    </vehicle>

    <vehicle id="31_tram_M5:1" type="pt_tram" depart="188.00" departLane="0" arrival="962.00">
        <route edges="101699676#0 1245947676#1 1245947676#2 301733774#1 301733774#2 1245947668#0 1245947668#1 22962555#2 22962555#3 22962555#4 150178429 150190354 46517264#1 46517264#2 150178427#0 150178427#1 150178427#4 94351498 82758167#1 82758167#2"/>
        <stop busStop="30731497" duration="30.00"/>
        <stop busStop="595038851" duration="30.00"/>
    </vehicle>

    <vehicle id="9_bus_N1385:1" type="pt_bus" depart="58.00" departLane="0" arrival="984.00">
        <route edges="24913524#0 195401006 1113401735#1 139877314#1 783042668 310357283#2 100405009#1 100405009#2 100405009#3 100405009#4 305093247#0 305093247#2 301610520#1 301733776 47016365#1 301241483#4 728838409 301241681#1 301241681#3 301241681#4 246052428 301167584#0 1105526112#1 112128418#2 112128418#4 457031289 1020548406 4484427#0 4484427#1 1344278031#1 1096709571#1 1138687769 24968394#0 24968394#1 24968394#2 24968394#3 24968394#4 24968394#5 24968394#6 24968394#7 24968394#9 1138687770#3 1138687770#4 1138687770#5 1138687770#6 1138687770#8 1138687770#9 1138687770#10 1096709564#1 1096709564#2 1096709564#3 1096709564#4 1096709564#5 1133992721#1 940056668#0 940056668#1 940056668#2 940056668#4 940056668#5 940056668#7 940056668#8 1133992717#3"/>
        <stop busStop="6828410667" duration="30.00"/>
    </vehicle>

    <vehicle id="43_tram_M1:3" type="pt_tram" depart="376.00" departLane="0" arrival="999.00">
        <route edges="149398400#3 1049894527#1 1049894527#3 1049894527#4 1049894527#5 1049894527#6 154165306#0 154165306#1 26757071#0 26757071#1 26757071#4 26757071#5 26757071#6 26757071#7 1049894529#1 1049894529#2 1049894529#3 1049894529#4 1049894529#5 1049894529#6 1049894529#7 1049894529#11 1053166655#3 153537614#3 153537614#4 153537614#7 153537614#8 153537614#10 153537614#11 153537614#12 153537614#13 153522303#0 153522303#1 153522303#3 46140393 1328606975#0 1328606975#1 101699679#0 101699679#1 101699679#3"/>
        <stop busStop="2135441884" duration="30.00"/>
        <stop busStop="2135441881" duration="30.00"/>
        <stop busStop="1668497956" duration="30.00"/>
    </vehicle>

    <vehicle id="74_bus_N70:0" type="pt_bus" depart="613.00" departLane="0" arrival="1031.00">
        <route edges="24913524#0 195401006 1113401735#1 139877314#1 783042668 310357283#2 100405009#1 100405009#2 100405009#3 100405009#4 305093247#0 305093247#2 301610520#1 301733776 47016365#1 301241483#4 728838409 301241681#1 301241681#3 301241681#4 246052428 301167584#0 100405009#1 100405009#2 100405009#3 100405009#4 305093247#0 305093247#2 301610520#1 301733776"/>
        <stop busStop="6828410667" duration="30.00"/>
    </vehicle>

    <vehicle id="80_bus_057:0" type="pt_bus" depart="583.00" departLane="0" arrival="1085.00">
        <route edges="1133992718#1 940016786#1 940016786#2 940016786#3 940016786#4 940016786#5 940016786#7 940016786#8 24243530#2 24243530#3 24243530#4 24243530#5 24243530#6 24243530#7 24243530#9 24243530#10 24243530#11 24243530#13 24243530#15 598692947#0 598692947#1 598692947#2 1364759420#0 26652030#1 1104460750 1104460751#1 1101404246#1 177372522 295445243 296122995#0 296122995#1 187103792#1 307098733#1 187103791 311690284 187111590 47016365#1 301241483#4 728838409 301241681#1 301241681#3 301241681#4 246052428 301167584#0 112128419#1 112128419#2 415280722 195401013#2"/>
        <stop busStop="6828410667" duration="30.00"/>
    </vehicle>

    <vehicle id="48_bus_142:0" type="pt_bus" depart="346.00" departLane="1" arrival="1098.00">
        <route edges="-1134090050 -111251391#2 1133993556#0 4790838#1 304162878#1 187091991 890801131#1 232070355#0 300401898 153689810#1 319339413 1105526086#0 1105526086#1 102983787#0 1101404342#1 312651884#1 312651884#2 312651884#4 312651884#5 312651884#6 312651884#7 312651884#8 312651884#9 312651886#2 -740848375 -320894149#2 -320894149#1 -320894149#0"/>
        <stop busStop="271327606" duration="30.00"/>
        <stop busStop="3918673868" duration="30.00"/>
        <stop busStop="3918673892" duration="30.00"/>
        <stop busStop="3918673894" duration="30.00"/>
    </vehicle>

    <vehicle id="40_tram_M1:0" type="pt_tram" depart="489.00" departLane="0" arrival="1099.00">
        <route edges="101699676#0 101699676#1 101699676#2 101699676#3 101699676#4 101699676#5 101699676#6 101699676#7 101699676#8 101699676#9 30721656#0 30721656#1 30721656#2 30721656#3 30721656#4 421641065#1 421641065#2 1328606998 28341062#0 28341062#1 1053166656#1 421641064 30721657#1 30721657#2 1328606977#0 1328606977#1 46140383#0 46140383#1 46140383#2 46140383#3 143931935#0 143931935#1 153537606#1 153537606#2 153537606#3 153537606#4 153537606#5 153537606#6 -153537612#1 -153537612#0 -143931933#7 -143931933#5 -143931933#4 -143931933#3 -143931933#0 -1049894530#10 -1049894530#7 -1049894530#6 -1049894530#5 -1049894530#4 -1049894530#3 -1049894530#2 -1049894530#1 -1049894530#0 -168253001#6 -168253001#5 -168253001#4 -168253001#1 -168253001#0 -153537603#1 -153537603#0 -104669629#1 -104669629#0"/>
        <stop busStop="1633759766" duration="30.00"/>
        <stop busStop="1662153916" duration="30.00"/>
        <stop busStop="-3837028203" duration="30.00"/>
        <stop busStop="-315735263" duration="30.00"/>
    </vehicle>

    <vehicle id="76_bus_070:0" type="pt_bus" depart="724.00" departLane="0" arrival="1137.00">
        <route edges="24913524#0 195401006 1113401735#1 139877314#1 783042668 310357283#2 100405009#1 100405009#2 100405009#3 100405009#4 305093247#0 305093247#2 301610520#1 301733776 47016365#1 301241483#4 728838409 301241681#1 301241681#3 301241681#4 246052428 301167584#0 100405009#1 100405009#2 100405009#3 100405009#4 305093247#0 305093247#2 301610520#1 301733776"/>
        <stop busStop="6828410667" duration="30.00"/>
    </vehicle>

    <vehicle id="41_tram_M1:1" type="pt_tram" depart="601.00" departLane="0" arrival="1153.00">